LAMMPS data file via write_data, version 22 Jul 2025, timestep = 58, units = metal

28554 atoms
2 atom types

-20.943968 226.353968 xlo xhi
-21.09 375.450275 ylo yhi
30 70 zlo zhi

Masses

1 12.011
2 1.008

Atoms # full

1 1 1 0 1.255992338896687 0.770682705588438 50 0 0 0
2 1 1 0 0 2.840563 50 0 0 0
3 1 1 0 2.4895414713858584 0.15284170632281996 50 0 0 0
4 1 1 0 3.7026137946623874 0.8412105942695072 50 0 0 0
5 1 1 0 1.2173843285610981 2.1664756073541698 50 0 0 0
6 1 1 0 2.4347562609015494 2.908473260531286 50 0 0 0
7 1 1 0 0 4.260845 50 0 0 0
8 1 1 0 1.197897579942558 5.000267229899744 50 0 0 0
9 1 1 0 0 7.101408 50 0 0 0
10 1 1 0 4.942450933289503 0.21378934078320447 50 0 0 0
11 1 1 0 6.158592714556469 0.8872555967997278 50 0 0 0
12 1 1 0 3.6818576513332797 2.2488902039188914 50 0 0 0
13 1 1 0 4.903741035330027 2.961982930684628 50 0 0 0
14 1 1 0 2.436425696910657 4.3212244854144926 50 0 0 0
15 1 1 0 3.6591545761839592 5.043000474257335 50 0 0 0
16 1 1 0 1.2104377325234057 6.409160311146904 50 0 0 0
17 1 1 0 2.4292154332922014 7.138882360959261 50 0 0 0
21 1 1 0 7.390921730687169 0.24567358698663602 50 0 0 0
23 1 1 0 6.144222885594692 2.2928234593909815 50 0 0 0
24 1 1 0 7.369789173060888 2.9913819612643007 50 0 0 0
25 1 1 0 4.899164845774875 4.369233891167572 50 0 0 0
26 1 1 0 6.126438689914708 5.0750562051983605 50 0 0 0
27 1 1 0 3.6646165124128833 6.454777636624128 50 0 0 0
28 1 1 0 4.890283738762657 7.1678529059435 50 0 0 0
40 1 1 0 7.364319752609821 4.397010733343216 50 0 0 0
42 1 1 0 6.1267909615902285 6.484473574853518 50 0 0 0
43 1 1 0 7.356814659849932 7.186127697703927 50 0 0 0
28055 1 2 0 0.286032 0.165141 50 0 0 0
28056 1 2 0 -0.943968 2.295563 50 0 0 0
28057 1 2 0 2.5202815724936776 -0.9376781013967277 50 0 0 0
28058 1 2 0 -0.943968 4.805845 50 0 0 0
28059 1 2 0 -0.943968 6.556408 50 0 0 0
28060 1 2 0 4.962206684812188 -0.8771824205624559 50 0 0 0
28063 1 2 0 7.399028437644707 -0.845587043739633 50 0 0 0
22 1 1 0 8.612899295795382 0.9072930784120151 50 0 0 0
36 1 1 0 9.842279429915807 0.2583631026180798 50 0 0 0
37 1 1 0 11.068640790197945 0.913352731904929 50 0 0 0
38 1 1 0 8.604978821234655 2.3128926654127038 50 0 0 0
39 1 1 0 9.833033735433725 3.0037821096173616 50 0 0 0
41 1 1 0 8.594075489462194 5.092659235601892 50 0 0 0
55 1 1 0 12.29764531329761 0.26154329859918196 50 0 0 0
56 1 1 0 13.5266906703225 0.9134623137425028 50 0 0 0
57 1 1 0 11.065087089101391 2.3193976094474946 50 0 0 0
58 1 1 0 12.294716459565924 3.006883016215452 50 0 0 0
59 1 1 0 9.828948093283541 4.409029551399774 50 0 0 0
60 1 1 0 11.059710829984814 5.099869785981249 50 0 0 0
61 1 1 0 8.592514361888552 6.5007143158843785 50 0 0 0
62 1 1 0 9.824032482028992 7.195979192874234 50 0 0 0
78 1 1 0 14.756252899269624 0.2611339810073829 50 0 0 0
79 1 1 0 15.98653729077798 0.9121114739502102 50 0 0 0
80 1 1 0 13.525458207714458 2.3198979681022682 50 0 0 0
81 1 1 0 14.755860558770253 3.006355921242855 50 0 0 0
82 1 1 0 12.292291463197571 4.412244775587295 50 0 0 0
83 1 1 0 13.52334280754542 5.101446341689303 50 0 0 0
84 1 1 0 11.058002436532513 6.507436728636162 50 0 0 0
85 1 1 0 12.289735028305827 7.19995276185248 50 0 0 0
105 1 1 0 17.216647914708858 0.26005849201212244 50 0 0 0
106 1 1 0 18.447286700209492 0.9110030038039088 50 0 0 0
107 1 1 0 15.986274934350229 2.3187480796521482 50 0 0 0
108 1 1 0 17.216918601378538 3.0051994473919525 50 0 0 0
109 1 1 0 14.754656054415959 4.4118883069787005 50 0 0 0
110 1 1 0 15.98564225109413 5.100958528828303 50 0 0 0
111 1 1 0 13.522109528874628 6.508940551944947 50 0 0 0
112 1 1 0 14.753573228879238 7.200790150614216 50 0 0 0
136 1 1 0 19.677636104499303 0.25922682232962957 50 0 0 0
137 1 1 0 20.908232149887528 0.9103759395084726 50 0 0 0
138 1 1 0 18.44731661239197 2.3176852985252165 50 0 0 0
139 1 1 0 19.677924983641773 3.004396912726337 50 0 0 0
140 1 1 0 17.21640644624021 4.410812932508078 50 0 0 0
141 1 1 0 18.44719576514524 5.10022039324016 50 0 0 0
142 1 1 0 15.984930848799227 6.508482343877403 50 0 0 0
143 1 1 0 17.21601667648061 7.200533382331686 50 0 0 0
173 1 1 0 20.90830295156519 2.3170341121186557 50 0 0 0
175 1 1 0 19.677732351233093 4.410014991431697 50 0 0 0
176 1 1 0 20.908302860638855 5.099757421013736 50 0 0 0
177 1 1 0 18.446843921527325 6.507755508885564 50 0 0 0
178 1 1 0 19.67759590217796 7.200170964652129 50 0 0 0
216 1 1 0 20.908138671843137 6.507264717864369 50 0 0 0
28066 1 2 0 9.844215455755995 -0.8331224637139686 50 0 0 0
28069 1 2 0 12.297212860138309 -0.8301190405238791 50 0 0 0
28072 1 2 0 14.755487243319468 -0.8306161838353582 50 0 0 0
28075 1 2 0 17.216183603062564 -0.8317148194670881 50 0 0 0
28078 1 2 0 19.677466606341014 -0.8325427834554696 50 0 0 0
171 1 1 0 22.138584167219133 0.2587106256313191 50 0 0 0
172 1 1 0 23.369011895989306 0.9100700907083693 50 0 0 0
174 1 1 0 22.138764364283823 3.00399256833318 50 0 0 0
210 1 1 0 24.59926799563928 0.2584121546402446 50 0 0 0
211 1 1 0 25.829525255346255 0.9099332985350898 50 0 0 0
212 1 1 0 23.369059767406267 2.3166853107439156 50 0 0 0
213 1 1 0 24.599357442389834 3.0038205604737813 50 0 0 0
214 1 1 0 22.138691529719306 4.4095759730618225 50 0 0 0
215 1 1 0 23.369066230845274 5.099543372189172 50 0 0 0
217 1 1 0 22.138632752737962 7.199955000663779 50 0 0 0
253 1 1 0 27.059676391077204 0.2582508113772527 50 0 0 0
254 1 1 0 28.28980684775793 0.9098786146856043 50 0 0 0
255 1 1 0 25.829548022487884 2.316508210411884 50 0 0 0
256 1 1 0 27.059712619582143 3.003755856284807 50 0 0 0
257 1 1 0 24.599323994418732 4.409359793727881 50 0 0 0
258 1 1 0 25.82954600122467 5.099460333313255 50 0 0 0
259 1 1 0 23.368988894092773 6.507004396672805 50 0 0 0
260 1 1 0 24.599293651932232 7.199861123437921 50 0 0 0
300 1 1 0 29.519879645292743 0.25817405840944774 50 0 0 0
301 1 1 0 30.749934320994026 0.9098604553671458 50 0 0 0
302 1 1 0 28.289814930165523 2.31642352439146 50 0 0 0
303 1 1 0 29.519892145665146 3.0037361024698495 50 0 0 0
304 1 1 0 27.059695977350046 4.409256852341681 50 0 0 0
305 1 1 0 28.289811134695114 5.09943368998752 50 0 0 0
306 1 1 0 25.829509649764297 6.506875960459669 50 0 0 0
307 1 1 0 27.059679932769363 7.199828054983142 50 0 0 0
351 1 1 0 31.9799629324612 0.2581437886542673 50 0 0 0
352 1 1 0 33.209981690342524 0.9098559178295508 50 0 0 0
353 1 1 0 30.749937207181134 2.316387614373073 50 0 0 0
354 1 1 0 31.979966793518134 3.003732210172817 50 0 0 0
355 1 1 0 29.519884548624635 4.4092109328952205 50 0 0 0
356 1 1 0 30.749934572267147 5.099428424600775 50 0 0 0
357 1 1 0 28.28979505387467 6.506814555037633 50 0 0 0
358 1 1 0 29.51987750571035 7.1998214882886025 50 0 0 0
406 1 1 0 34.43999071416464 0.2581341865232417 50 0 0 0
407 1 1 0 35.669995854410566 0.9098551141579672 50 0 0 0
408 1 1 0 33.209982582401096 2.316374952038942 50 0 0 0
409 1 1 0 34.4399916720802 3.003732224925048 50 0 0 0
410 1 1 0 31.979963992798478 4.409192950130723 50 0 0 0
411 1 1 0 33.20998165675413 5.099429049477119 50 0 0 0
412 1 1 0 30.74992913860864 6.5067880687368715 50 0 0 0
413 1 1 0 31.979961865601013 7.199823331472446 50 0 0 0
467 1 1 0 35.66999609199058 2.3163713375736115 50 0 0 0
469 1 1 0 34.43999102278276 4.40918720207606 50 0 0 0
470 1 1 0 35.66999591346683 5.099429951967606 50 0 0 0
471 1 1 0 33.20998032216346 6.506778603515474 50 0 0 0
472 1 1 0 34.43999052645491 7.19982539341131 50 0 0 0
534 1 1 0 35.66999565175904 6.506775887559047 50 0 0 0
28081 1 2 0 22.13856960635564 -0.8330496752949217 50 0 0 0
28084 1 2 0 24.599308277882034 -0.8333399070498784 50 0 0 0
28087 1 2 0 27.05972004918669 -0.8334946544741598 50 0 0 0
28090 1 2 0 29.519907422303397 -0.8335656193746493 50 0 0 0
28093 1 2 0 31.979975347301572 -0.8335921269670343 50 0 0 0
28096 1 2 0 34.43999472453729 -0.8335999025059743 50 0 0 0
465 1 1 0 36.899998106307855 0.25813178076246224 50 0 0 0
466 1 1 0 38.129999235184066 0.9098550434884807 50 0 0 0
468 1 1 0 36.899998326951405 3.003732563615616 50 0 0 0
528 1 1 0 39.35999968600621 0.2581313065198571 50 0 0 0
529 1 1 0 40.58999988549013 0.9098550508618959 50 0 0 0
530 1 1 0 38.12999930144067 2.3163705263087992 50 0 0 0
531 1 1 0 39.35999973176997 3.0037326935071516 50 0 0 0
532 1 1 0 36.899998219888445 4.4091857577388485 50 0 0 0
533 1 1 0 38.12999927196801 5.099430298469941 50 0 0 0
535 1 1 0 36.89999813010925 7.199826257301913 50 0 0 0
595 1 1 0 41.819999957714785 0.258131232531479 50 0 0 0
596 1 1 0 43.04999998598022 0.9098550543307713 50 0 0 0
597 1 1 0 40.589999899372366 2.316370383956736 50 0 0 0
598 1 1 0 41.81999996484659 3.0037327228952573 50 0 0 0
599 1 1 0 39.359999715981075 4.40918547144374 50 0 0 0
600 1 1 0 40.58999989532669 5.099430383463154 50 0 0 0
601 1 1 0 38.12999923842629 6.50677527469988 50 0 0 0
602 1 1 0 39.35999970844183 7.199826492178604 50 0 0 0
666 1 1 0 44.279999995298496 0.25813122325884713 50 0 0 0
667 1 1 0 45.50999999857178 0.9098550549959422 50 0 0 0
668 1 1 0 43.049999988028375 2.316370364103053 50 0 0 0
669 1 1 0 44.279999996181274 3.003732727845741 50 0 0 0
670 1 1 0 41.819999963527756 4.409185427102805 50 0 0 0
671 1 1 0 43.04999998796901 5.099430398899217 50 0 0 0
672 1 1 0 40.589999895259936 6.506775169334907 50 0 0 0
673 1 1 0 41.81999996449223 7.199826537831267 50 0 0 0
741 1 1 0 46.73999999956498 0.2581312223122479 50 0 0 0
742 1 1 0 47.96999999988003 0.9098550550893472 50 0 0 0
743 1 1 0 45.50999999882789 2.316370361897394 50 0 0 0
744 1 1 0 46.739999999663574 3.0037327285026167 50 0 0 0
745 1 1 0 44.279999996299 4.409185421893119 50 0 0 0
746 1 1 0 45.50999999891959 5.09943040101693 50 0 0 0
747 1 1 0 43.04999998882473 6.5067751558122335 50 0 0 0
748 1 1 0 44.27999999666294 7.19982654428821 50 0 0 0
820 1 1 0 49.19999999996744 0.25813122223456175 50 0 0 0
822 1 1 0 47.969999999908694 2.3163703617058324 50 0 0 0
823 1 1 0 49.19999999997688 3.0037327285693216 50 0 0 0
824 1 1 0 46.73999999971038 4.409185421440754 50 0 0 0
825 1 1 0 47.969999999925996 5.099430401232447 50 0 0 0
826 1 1 0 45.509999999085046 6.5067751545194605 50 0 0 0
827 1 1 0 46.73999999976068 7.199826544953387 50 0 0 0
907 1 1 0 49.19999999998293 4.40918542141225 50 0 0 0
909 1 1 0 47.9699999999432 6.506775154426977 50 0 0 0
910 1 1 0 49.19999999998711 7.19982654500319 50 0 0 0
28099 1 2 0 36.89999909092107 -0.8336016712790605 50 0 0 0
28102 1 2 0 39.35999987295216 -0.8336019833405741 50 0 0 0
28105 1 2 0 41.8199999854002 -0.8336020265932143 50 0 0 0
28108 1 2 0 44.27999999861188 -0.8336020314131519 50 0 0 0
28111 1 2 0 46.7399999998925 -0.8336020318442949 50 0 0 0
28114 1 2 0 49.199999999993445 -0.8336020318738199 50 0 0 0
821 1 1 0 50.429999999992035 0.9098550550989909 50 0 0 0
903 1 1 0 51.65999999999812 0.2581312222296715 50 0 0 0
904 1 1 0 52.889999999999596 0.9098550550996809 50 0 0 0
905 1 1 0 50.429999999994564 2.3163703616931435 50 0 0 0
906 1 1 0 51.6599999999988 3.0037327285742954 50 0 0 0
908 1 1 0 50.42999999999623 5.0994304012484255 50 0 0 0
990 1 1 0 54.11999999999991 0.25813122222945245 50 0 0 0
991 1 1 0 55.34999999999998 0.9098550550997112 50 0 0 0
992 1 1 0 52.88999999999976 2.3163703616925218 50 0 0 0
993 1 1 0 54.119999999999955 3.0037327285745596 50 0 0 0
994 1 1 0 51.659999999999265 4.409185421410983 50 0 0 0
995 1 1 0 52.889999999999866 5.099430401249276 50 0 0 0
996 1 1 0 50.42999999999738 6.506775154422048 50 0 0 0
997 1 1 0 51.6599999999995 7.199826545005867 50 0 0 0
1081 1 1 0 56.57999999999999 0.25813122222944257 50 0 0 0
1082 1 1 0 57.809999999999995 0.9098550550997073 50 0 0 0
1083 1 1 0 55.34999999999999 2.3163703616924973 50 0 0 0
1084 1 1 0 56.58 3.0037327285745685 50 0 0 0
1085 1 1 0 54.119999999999976 4.409185421410944 50 0 0 0
1086 1 1 0 55.35 5.099430401249308 50 0 0 0
1087 1 1 0 52.889999999999915 6.506775154421857 50 0 0 0
1088 1 1 0 54.11999999999999 7.199826545005969 50 0 0 0
1176 1 1 0 59.04 0.25813122222944446 50 0 0 0
1177 1 1 0 60.269999999999996 0.909855055099714 50 0 0 0
1178 1 1 0 57.809999999999995 2.316370361692496 50 0 0 0
1179 1 1 0 59.03999999999999 3.0037327285745694 50 0 0 0
1180 1 1 0 56.58 4.409185421410944 50 0 0 0
1181 1 1 0 57.809999999999995 5.09943040124931 50 0 0 0
1182 1 1 0 55.35 6.506775154421854 50 0 0 0
1183 1 1 0 56.58 7.199826545005976 50 0 0 0
1275 1 1 0 61.5 0.258131222229448 50 0 0 0
1276 1 1 0 62.73 0.909855055099711 50 0 0 0
1277 1 1 0 60.269999999999996 2.3163703616925058 50 0 0 0
1278 1 1 0 61.5 3.0037327285745707 50 0 0 0
1279 1 1 0 59.03999999999999 4.409185421410945 50 0 0 0
1280 1 1 0 60.269999999999996 5.0994304012493075 50 0 0 0
1281 1 1 0 57.809999999999995 6.506775154421857 50 0 0 0
1282 1 1 0 59.04 7.199826545005973 50 0 0 0
1378 1 1 0 63.96 0.25813122222944657 50 0 0 0
1380 1 1 0 62.73 2.3163703616925027 50 0 0 0
1381 1 1 0 63.96 3.00373272857457 50 0 0 0
1382 1 1 0 61.5 4.409185421410945 50 0 0 0
1383 1 1 0 62.73 5.099430401249309 50 0 0 0
1384 1 1 0 60.269999999999996 6.506775154421853 50 0 0 0
1385 1 1 0 61.5 7.19982654500597 50 0 0 0
1489 1 1 0 63.96 4.409185421410946 50 0 0 0
1491 1 1 0 62.73 6.506775154421853 50 0 0 0
1492 1 1 0 63.959999999999994 7.199826545005973 50 0 0 0
28117 1 2 0 51.6599999999997 -0.8336020318752396 50 0 0 0
28120 1 2 0 54.11999999999998 -0.833602031875279 50 0 0 0
28123 1 2 0 56.579999999999984 -0.8336020318752834 50 0 0 0
28126 1 2 0 59.040000000000006 -0.8336020318752794 50 0 0 0
28129 1 2 0 61.49999999999999 -0.833602031875274 50 0 0 0
28132 1 2 0 63.96 -0.8336020318752789 50 0 0 0
1379 1 1 0 65.19 0.909855055099711 50 0 0 0
1485 1 1 0 66.42 0.2581312222294462 50 0 0 0
1486 1 1 0 67.65 0.9098550550997131 50 0 0 0
1487 1 1 0 65.19 2.3163703616925 50 0 0 0
1488 1 1 0 66.42 3.0037327285745685 50 0 0 0
1490 1 1 0 65.19 5.099430401249312 50 0 0 0
1596 1 1 0 68.88 0.2581312222294452 50 0 0 0
1597 1 1 0 70.11 0.9098550550997089 50 0 0 0
1598 1 1 0 67.64999999999999 2.3163703616925004 50 0 0 0
1599 1 1 0 68.88 3.003732728574569 50 0 0 0
1600 1 1 0 66.42 4.409185421410948 50 0 0 0
1601 1 1 0 67.64999999999999 5.099430401249311 50 0 0 0
1602 1 1 0 65.19 6.506775154421858 50 0 0 0
1603 1 1 0 66.42 7.1998265450059735 50 0 0 0
1711 1 1 0 71.34 0.25813122222944457 50 0 0 0
1712 1 1 0 72.57000000000001 0.9098550550997109 50 0 0 0
1713 1 1 0 70.11 2.3163703616925004 50 0 0 0
1714 1 1 0 71.34 3.0037327285745685 50 0 0 0
1715 1 1 0 68.88000000000001 4.409185421410943 50 0 0 0
1716 1 1 0 70.11 5.099430401249305 50 0 0 0
1717 1 1 0 67.65 6.506775154421854 50 0 0 0
1718 1 1 0 68.88 7.199826545005972 50 0 0 0
1830 1 1 0 73.8 0.2581312222294453 50 0 0 0
1831 1 1 0 75.03 0.9098550550997105 50 0 0 0
1832 1 1 0 72.57 2.3163703616924964 50 0 0 0
1833 1 1 0 73.8 3.0037327285745716 50 0 0 0
1834 1 1 0 71.34 4.409185421410942 50 0 0 0
1835 1 1 0 72.57 5.099430401249311 50 0 0 0
1836 1 1 0 70.11 6.506775154421854 50 0 0 0
1837 1 1 0 71.34 7.199826545005975 50 0 0 0
1953 1 1 0 76.26 0.25813122222944973 50 0 0 0
1954 1 1 0 77.49000000000001 0.9098550550997173 50 0 0 0
1955 1 1 0 75.03 2.316370361692502 50 0 0 0
1956 1 1 0 76.26 3.003732728574569 50 0 0 0
1957 1 1 0 73.8 4.409185421410948 50 0 0 0
1958 1 1 0 75.03 5.099430401249308 50 0 0 0
1959 1 1 0 72.57 6.506775154421854 50 0 0 0
1960 1 1 0 73.8 7.199826545005972 50 0 0 0
2080 1 1 0 78.72000000000001 0.25813122222944596 50 0 0 0
2082 1 1 0 77.49000000000001 2.3163703616925058 50 0 0 0
2083 1 1 0 78.72000000000001 3.0037327285745667 50 0 0 0
2084 1 1 0 76.26 4.409185421410944 50 0 0 0
2085 1 1 0 77.49 5.099430401249309 50 0 0 0
2086 1 1 0 75.03 6.506775154421854 50 0 0 0
2087 1 1 0 76.25999999999999 7.199826545005973 50 0 0 0
2215 1 1 0 78.72 4.409185421410944 50 0 0 0
2217 1 1 0 77.49 6.506775154421855 50 0 0 0
2218 1 1 0 78.72 7.199826545005966 50 0 0 0
28135 1 2 0 66.42 -0.833602031875278 50 0 0 0
28138 1 2 0 68.88 -0.8336020318752781 50 0 0 0
28141 1 2 0 71.33999999999999 -0.8336020318752815 50 0 0 0
28144 1 2 0 73.8 -0.8336020318752807 50 0 0 0
28147 1 2 0 76.26000000000002 -0.8336020318752773 50 0 0 0
28150 1 2 0 78.71999999999998 -0.8336020318752776 50 0 0 0
2081 1 1 0 79.95000000000002 0.9098550550997029 50 0 0 0
2211 1 1 0 81.18000000000002 0.25813122222944196 50 0 0 0
2212 1 1 0 82.41000000000003 0.9098550550997047 50 0 0 0
2213 1 1 0 79.95000000000002 2.316370361692496 50 0 0 0
2214 1 1 0 81.18000000000002 3.0037327285745645 50 0 0 0
2216 1 1 0 79.95 5.099430401249306 50 0 0 0
2346 1 1 0 83.64000000000003 0.25813122222943774 50 0 0 0
2347 1 1 0 84.87000000000002 0.9098550550997138 50 0 0 0
2348 1 1 0 82.41000000000003 2.3163703616924933 50 0 0 0
2349 1 1 0 83.64000000000001 3.003732728574572 50 0 0 0
2350 1 1 0 81.18 4.4091854214109425 50 0 0 0
2351 1 1 0 82.41000000000001 5.099430401249307 50 0 0 0
2352 1 1 0 79.95 6.50677515442185 50 0 0 0
2353 1 1 0 81.17999999999999 7.199826545005971 50 0 0 0
2485 1 1 0 86.10000000000001 0.25813122222944135 50 0 0 0
2486 1 1 0 87.33 0.9098550550997136 50 0 0 0
2487 1 1 0 84.87 2.3163703616924938 50 0 0 0
2488 1 1 0 86.1 3.003732728574573 50 0 0 0
2489 1 1 0 83.64000000000001 4.409185421410945 50 0 0 0
2490 1 1 0 84.87 5.099430401249315 50 0 0 0
2491 1 1 0 82.41000000000001 6.506775154421856 50 0 0 0
2492 1 1 0 83.64 7.199826545005975 50 0 0 0
2628 1 1 0 88.56 0.2581312222294514 50 0 0 0
2629 1 1 0 89.79 0.909855055099711 50 0 0 0
2630 1 1 0 87.33 2.3163703616925018 50 0 0 0
2631 1 1 0 88.56 3.003732728574568 50 0 0 0
2632 1 1 0 86.1 4.409185421410948 50 0 0 0
2633 1 1 0 87.33 5.0994304012493075 50 0 0 0
2634 1 1 0 84.87 6.5067751544218595 50 0 0 0
2635 1 1 0 86.1 7.199826545005973 50 0 0 0
2775 1 1 0 91.02000000000001 0.2581312222294438 50 0 0 0
2776 1 1 0 92.25000000000001 0.9098550550997125 50 0 0 0
2777 1 1 0 89.79 2.3163703616925004 50 0 0 0
2778 1 1 0 91.02 3.0037327285745703 50 0 0 0
2779 1 1 0 88.56 4.409185421410946 50 0 0 0
2780 1 1 0 89.78999999999999 5.099430401249312 50 0 0 0
2781 1 1 0 87.33 6.506775154421851 50 0 0 0
2782 1 1 0 88.56 7.199826545005966 50 0 0 0
2928 1 1 0 92.25 2.3163703616925067 50 0 0 0
2930 1 1 0 91.02 4.4091854214109425 50 0 0 0
2931 1 1 0 92.24999999999999 5.099430401249313 50 0 0 0
2932 1 1 0 89.79 6.506775154421856 50 0 0 0
2933 1 1 0 91.02 7.19982654500598 50 0 0 0
3087 1 1 0 92.24999999999999 6.506775154421859 50 0 0 0
28153 1 2 0 81.18000000000002 -0.8336020318752808 50 0 0 0
28156 1 2 0 83.64000000000004 -0.8336020318752891 50 0 0 0
28159 1 2 0 86.1 -0.8336020318752847 50 0 0 0
28162 1 2 0 88.56000000000002 -0.8336020318752729 50 0 0 0
28165 1 2 0 91.02000000000001 -0.8336020318752805 50 0 0 0
2926 1 1 0 93.48 0.2581312222294476 50 0 0 0
2927 1 1 0 94.71000000000001 0.9098550550997092 50 0 0 0
2929 1 1 0 93.48 3.0037327285745685 50 0 0 0
3081 1 1 0 95.94000000000001 0.2581312222294456 50 0 0 0
3082 1 1 0 97.17000000000002 0.9098550550997156 50 0 0 0
3083 1 1 0 94.71000000000001 2.3163703616925018 50 0 0 0
3084 1 1 0 95.94 3.0037327285745725 50 0 0 0
3085 1 1 0 93.47999999999999 4.409185421410947 50 0 0 0
3086 1 1 0 94.71 5.099430401249309 50 0 0 0
3088 1 1 0 93.47999999999999 7.199826545005973 50 0 0 0
3240 1 1 0 98.4 0.25813122222944906 50 0 0 0
3241 1 1 0 99.63 0.9098550550997179 50 0 0 0
3242 1 1 0 97.17 2.316370361692504 50 0 0 0
3243 1 1 0 98.4 3.003732728574575 50 0 0 0
3244 1 1 0 95.94 4.409185421410948 50 0 0 0
3245 1 1 0 97.17 5.099430401249308 50 0 0 0
3246 1 1 0 94.71 6.506775154421856 50 0 0 0
3247 1 1 0 95.94 7.199826545005969 50 0 0 0
3403 1 1 0 100.86 0.2581312222294475 50 0 0 0
3404 1 1 0 102.09 0.9098550550997112 50 0 0 0
3405 1 1 0 99.63000000000001 2.316370361692503 50 0 0 0
3406 1 1 0 100.86 3.0037327285745703 50 0 0 0
3407 1 1 0 98.4 4.409185421410948 50 0 0 0
3408 1 1 0 99.63 5.099430401249314 50 0 0 0
3409 1 1 0 97.17 6.506775154421854 50 0 0 0
3410 1 1 0 98.4 7.199826545005975 50 0 0 0
3572 1 1 0 102.09 2.3163703616925004 50 0 0 0
3574 1 1 0 100.86 4.40918542141095 50 0 0 0
3575 1 1 0 102.09 5.099430401249309 50 0 0 0
3576 1 1 0 99.63 6.506775154421857 50 0 0 0
3577 1 1 0 100.86 7.19982654500597 50 0 0 0
3747 1 1 0 102.09 6.506775154421853 50 0 0 0
28168 1 2 0 93.48 -0.8336020318752756 50 0 0 0
28171 1 2 0 95.94000000000001 -0.8336020318752787 50 0 0 0
28174 1 2 0 98.40000000000002 -0.8336020318752757 50 0 0 0
28177 1 2 0 100.86 -0.833602031875277 50 0 0 0
18 1 1 0 0 8.52169 50 0 0 0
19 1 1 0 1.2015580691447563 9.249813945546336 50 0 0 0
20 1 1 0 0 11.362253 50 0 0 0
29 1 1 0 2.4352945459247333 8.555118657921383 50 0 0 0
30 1 1 0 3.6604972464773557 9.271075475802915 50 0 0 0
31 1 1 0 1.2099790602306169 10.660606496040247 50 0 0 0
32 1 1 0 2.4339072031968247 11.381693938827944 50 0 0 0
33 1 1 0 0 12.782535 50 0 0 0
34 1 1 0 1.205756247829384 13.503138272716543 50 0 0 0
35 1 1 0 0 15.623098 50 0 0 0
44 1 1 0 4.894650313113314 8.580490468676311 50 0 0 0
45 1 1 0 6.1237990999355825 9.287281852487451 50 0 0 0
46 1 1 0 3.6666925878611063 10.686048163788387 50 0 0 0
47 1 1 0 4.894623151035029 11.396257533804537 50 0 0 0
48 1 1 0 2.438220776647228 12.800319487959195 50 0 0 0
49 1 1 0 3.666601003455481 13.511587604688337 50 0 0 0
50 1 1 0 1.210317049461596 14.915637142653546 50 0 0 0
51 1 1 0 2.4384316756950675 15.631199439506231 50 0 0 0
52 1 1 0 0 17.04338 50 0 0 0
53 1 1 0 1.2087826741798964 17.759420070733032 50 0 0 0
54 1 1 0 0 19.883943 50 0 0 0
63 1 1 0 7.35851346318113 8.59727106356822 50 0 0 0
65 1 1 0 6.1278429822973886 10.701008620032303 50 0 0 0
66 1 1 0 7.358682412499905 11.404862388363128 50 0 0 0
67 1 1 0 4.8988673111943255 12.811990629130818 50 0 0 0
68 1 1 0 6.129168021281931 13.51867549668703 50 0 0 0
69 1 1 0 3.670529456540088 14.92896859298808 50 0 0 0
70 1 1 0 4.900366823077603 15.637650560189828 50 0 0 0
71 1 1 0 2.4407910552561622 17.0516478982436 50 0 0 0
72 1 1 0 3.6713012032029697 17.760681172615424 50 0 0 0
73 1 1 0 1.2107517523749176 19.173164794349063 50 0 0 0
74 1 1 0 2.441307125680721 19.885948828782066 50 0 0 0
75 1 1 0 0 21.304225 50 0 0 0
90 1 1 0 7.361781912052276 12.81972662315096 50 0 0 0
92 1 1 0 6.132352750805006 14.935325806072278 50 0 0 0
93 1 1 0 7.363512645028077 15.641026233525299 50 0 0 0
94 1 1 0 4.902861698010691 17.05570481186852 50 0 0 0
95 1 1 0 6.133843746571093 17.76315200516248 50 0 0 0
96 1 1 0 3.6731491985828275 19.179817133349943 50 0 0 0
97 1 1 0 4.9039452086990565 19.888482880238254 50 0 0 0
98 1 1 0 2.4422616657027354 21.307578174845474 50 0 0 0
121 1 1 0 7.365559575460317 17.05860139717362 50 0 0 0
123 1 1 0 6.13541738576318 19.181934097988844 50 0 0 0
124 1 1 0 7.366628732359976 19.889534782661883 50 0 0 0
125 1 1 0 4.904942490329195 21.308108298896794 50 0 0 0
156 1 1 0 7.367434888245792 21.308952338121564 50 0 0 0
28061 1 2 0 -0.943968 9.06669 50 0 0 0
28062 1 2 0 -0.943968 10.817253 50 0 0 0
28064 1 2 0 -0.943968 13.327535 50 0 0 0
28065 1 2 0 -0.943968 15.078098 50 0 0 0
28067 1 2 0 -0.943968 17.58838 50 0 0 0
28068 1 2 0 -0.943968 19.338943 50 0 0 0
64 1 1 0 8.590002533375337 9.297213175700202 50 0 0 0
86 1 1 0 9.824174405124463 8.606138616017933 50 0 0 0
87 1 1 0 11.056243134039185 9.302492186592564 50 0 0 0
88 1 1 0 8.59211733265519 10.709901114546211 50 0 0 0
89 1 1 0 9.824031962105561 11.410033759871753 50 0 0 0
91 1 1 0 8.593309488229844 13.523022648476001 50 0 0 0
113 1 1 0 12.289287736116995 8.60967064630093 50 0 0 0
114 1 1 0 13.52113595573324 9.30465218574476 50 0 0 0
115 1 1 0 11.057054795140013 10.714499271445945 50 0 0 0
116 1 1 0 12.289015142204645 11.41282244024095 50 0 0 0
117 1 1 0 9.82587852481423 12.824208382665567 50 0 0 0
118 1 1 0 11.05768895770976 13.525683838734414 50 0 0 0
119 1 1 0 8.595575237999137 14.939067766443205 50 0 0 0
120 1 1 0 9.82712547033302 15.643180173639658 50 0 0 0
122 1 1 0 8.596898657879924 17.764739264069426 50 0 0 0
144 1 1 0 14.75308533500768 8.610369469056078 50 0 0 0
145 1 1 0 15.984481937010916 9.30517392844222 50 0 0 0
146 1 1 0 13.52127274361516 10.716312027368458 50 0 0 0
147 1 1 0 14.752868307945517 11.414032559998534 50 0 0 0
148 1 1 0 12.289887706341974 12.826537682757092 50 0 0 0
149 1 1 0 13.521506469682606 13.527176840398923 50 0 0 0
150 1 1 0 11.059052635672447 14.941278847163344 50 0 0 0
151 1 1 0 12.290556935524219 15.644559469988899 50 0 0 0
152 1 1 0 9.828549833959974 17.06036993500972 50 0 0 0
153 1 1 0 11.059904688622094 17.76581438701757 50 0 0 0
154 1 1 0 8.59807546217738 19.183201776591616 50 0 0 0
155 1 1 0 9.829317800436037 19.890278432680418 50 0 0 0
179 1 1 0 17.21567755419824 8.610069917654187 50 0 0 0
180 1 1 0 18.446648923012795 9.305118742616813 50 0 0 0
181 1 1 0 15.984384563067819 10.716680241228 50 0 0 0
182 1 1 0 17.215549004183714 11.414395891809903 50 0 0 0
183 1 1 0 14.753169978586469 12.827483753963127 50 0 0 0
184 1 1 0 15.984441344692241 13.527868126725503 50 0 0 0
185 1 1 0 13.522177904079422 14.94245948696418 50 0 0 0
186 1 1 0 14.753454557910505 15.645354895996572 50 0 0 0
187 1 1 0 12.29138831989305 17.06145451114196 50 0 0 0
188 1 1 0 13.522610205211066 17.76651597664152 50 0 0 0
189 1 1 0 11.060665883117103 19.184030635573396 50 0 0 0
190 1 1 0 12.291829772962013 19.89079646836309 50 0 0 0
191 1 1 0 9.829879875864034 21.309504620576064 50 0 0 0
218 1 1 0 19.677401938135628 8.609668064352253 50 0 0 0
219 1 1 0 20.908048042411398 9.304986571947158 50 0 0 0
220 1 1 0 18.44652933245291 10.716542421742547 50 0 0 0
221 1 1 0 19.67733138831685 11.414437139679759 50 0 0 0
222 1 1 0 17.215602281540278 12.827698565955236 50 0 0 0
223 1 1 0 18.44652921869618 13.528111186665413 50 0 0 0
224 1 1 0 15.984700240372945 14.94294884289455 50 0 0 0
225 1 1 0 17.215699790113216 15.645733915677178 50 0 0 0
226 1 1 0 14.75385158507558 17.062033460579126 50 0 0 0
227 1 1 0 15.984878059772024 17.766915524675653 50 0 0 0
228 1 1 0 13.523025736790862 19.18453655551923 50 0 0 0
229 1 1 0 14.754058339757098 19.891125572149008 50 0 0 0
230 1 1 0 12.292167818074924 21.309864616748975 50 0 0 0
263 1 1 0 20.907965862044072 10.716342884761724 50 0 0 0
265 1 1 0 19.67731045007608 12.827642420733662 50 0 0 0
266 1 1 0 20.90795246979266 13.528171336818927 50 0 0 0
267 1 1 0 18.44659783334332 14.943059149815607 50 0 0 0
268 1 1 0 19.677335041004806 15.645878034773562 50 0 0 0
269 1 1 0 17.215847937921286 17.062257385374483 50 0 0 0
270 1 1 0 18.44665702483518 17.767104985300957 50 0 0 0
271 1 1 0 15.985062248026352 19.18478338663895 50 0 0 0
272 1 1 0 17.215926501618274 19.891308334026334 50 0 0 0
273 1 1 0 14.754227928531373 21.310062591788324 50 0 0 0
314 1 1 0 20.907956660381405 14.943023312658552 50 0 0 0
316 1 1 0 19.677373390084163 17.06228949303601 50 0 0 0
317 1 1 0 20.907971845844166 17.76718351080983 50 0 0 0
318 1 1 0 18.44671859022597 19.184854181386005 50 0 0 0
319 1 1 0 19.677397072261343 19.891397600078 50 0 0 0
320 1 1 0 17.215992467415187 21.310133532858618 50 0 0 0
369 1 1 0 20.907984540834914 19.184837828047463 50 0 0 0
371 1 1 0 19.67741464448075 21.310128832730552 50 0 0 0
261 1 1 0 22.13853341036758 8.609400949080689 50 0 0 0
262 1 1 0 23.36894378025602 9.304908062630023 50 0 0 0
264 1 1 0 22.138493976389935 11.414412385679478 50 0 0 0
308 1 1 0 24.599244894260224 8.609254068306855 50 0 0 0
309 1 1 0 25.829487070839818 9.30487674032229 50 0 0 0
310 1 1 0 23.36889657334007 10.71620102813964 50 0 0 0
311 1 1 0 24.599223635308828 11.414396584943567 50 0 0 0
312 1 1 0 22.138465736369962 12.827539663759916 50 0 0 0
313 1 1 0 23.368884734699847 13.528185027629348 50 0 0 0
315 1 1 0 22.138467831480156 15.64592762807954 50 0 0 0
359 1 1 0 27.059658228897604 8.609177842391404 50 0 0 0
360 1 1 0 28.2897858038488 9.304871429787038 50 0 0 0
361 1 1 0 25.829464370349537 10.716117285372684 50 0 0 0
362 1 1 0 27.059649219896556 11.414396700187954 50 0 0 0
363 1 1 0 24.599205890261373 12.827460216831483 50 0 0 0
364 1 1 0 25.829458201895275 13.52819505912523 50 0 0 0
365 1 1 0 23.36887649655299 14.942960509856265 50 0 0 0
366 1 1 0 24.59920398300153 15.645950823802357 50 0 0 0
367 1 1 0 22.138470848967575 17.062250819644518 50 0 0 0
368 1 1 0 23.368878968100347 17.767220272824932 50 0 0 0
370 1 1 0 22.138476509983633 19.891444311736375 50 0 0 0
414 1 1 0 29.519870117849326 8.609141986176372 50 0 0 0
415 1 1 0 30.749926349516176 9.304875759609532 50 0 0 0
416 1 1 0 28.28977766891326 10.716073567721718 50 0 0 0
417 1 1 0 29.519867431192388 11.414405007175455 50 0 0 0
418 1 1 0 27.059641916607692 12.827411835646709 50 0 0 0
419 1 1 0 28.289775906323143 13.528208554914524 50 0 0 0
420 1 1 0 25.829452955184173 14.942911351879623 50 0 0 0
421 1 1 0 27.05964161609191 15.645970222330243 50 0 0 0
422 1 1 0 24.599201619298203 17.062204350076204 50 0 0 0
423 1 1 0 25.829454328765078 17.767245880310444 50 0 0 0
424 1 1 0 23.368879490071482 19.184796296094543 50 0 0 0
425 1 1 0 24.599204196736647 19.891476025111263 50 0 0 0
426 1 1 0 22.138478974967857 21.31009265253911 50 0 0 0
473 1 1 0 31.979960024283304 8.609127649080158 50 0 0 0
474 1 1 0 33.20997972182886 9.304879996613758 50 0 0 0
475 1 1 0 30.74992446529656 10.716053839377205 50 0 0 0
476 1 1 0 31.979959661191284 11.414412702895536 50 0 0 0
477 1 1 0 29.51986606044128 12.827386856451126 50 0 0 0
478 1 1 0 30.749924695620347 13.528220850159972 50 0 0 0
479 1 1 0 28.289775498619978 14.942881770179373 50 0 0 0
480 1 1 0 29.519867180652117 15.64598770186269 50 0 0 0
481 1 1 0 27.059642377364856 17.062171128139934 50 0 0 0
482 1 1 0 28.28977762129339 17.767268404905145 50 0 0 0
483 1 1 0 25.829455934195888 19.184760513395094 50 0 0 0
484 1 1 0 27.059645182939903 19.89150300790041 50 0 0 0
485 1 1 0 24.599205931404924 21.310055312372967 50 0 0 0
536 1 1 0 34.43999023872539 8.609122978087132 50 0 0 0
537 1 1 0 35.6699955988253 9.30488194545628 50 0 0 0
538 1 1 0 33.209979640476405 10.716046521663907 50 0 0 0
539 1 1 0 34.439990354945365 11.414416587370846 50 0 0 0
540 1 1 0 31.979960066678053 12.827376201578616 50 0 0 0
541 1 1 0 33.20998007908263 13.52822770725686 50 0 0 0
542 1 1 0 30.749925848584244 14.942867109503068 50 0 0 0
543 1 1 0 31.979960984670857 15.645998541087652 50 0 0 0
544 1 1 0 29.519869172162565 17.062151935742474 50 0 0 0
545 1 1 0 30.749927330421443 17.767283910418453 50 0 0 0
546 1 1 0 28.289780183435084 19.18473658655454 50 0 0 0